/*--------------------------------*- C++ -*----------------------------------*\
| =========                 |                                                 |
| \\      /  F ield         | OpenFOAM: The Open Source CFD Toolbox           |
|  \\    /   O peration     | Version:  v2012                                 |
|   \\  /    A nd           | Website:  www.openfoam.com                      |
|    \\/     M anipulation  |                                                 |
\*---------------------------------------------------------------------------*/
FoamFile
{
    version     2.0;
    format      ascii;
    class       polyBoundaryMesh;
    location    "constant/polyMesh";
    object      boundary;
}
// * * * * * * * * * * * * * * * * * * * * * * * * * * * * * * * * * * * * * //

4
(
    inner
    {
        type            wall;
        inGroups        1(wall);
        nFaces          86;
        startFace       9148;
    }
    outer
    {
        type            wall;
        inGroups        1(wall);
        nFaces          86;
        startFace       9234;
    }
    
    frontPlane
    {
        type            wedge;
        inGroups        1(wedge);
        nFaces          4644;
        startFace       9320;
    }
    backPlane
    {
        type            wedge;
        inGroups        1(wedge);
        nFaces          4644;
        startFace       13964;
    }
)

// ************************************************************************* //
