/*--------------------------------*- C++ -*----------------------------------*\
| =========                 |                                                 |
| \\      /  F ield         | OpenFOAM: The Open Source CFD Toolbox           |
|  \\    /   O peration     | Version:  v2012                                 |
|   \\  /    A nd           | Website:  www.openfoam.com                      |
|    \\/     M anipulation  |                                                 |
\*---------------------------------------------------------------------------*/
FoamFile
{
    version     2.0;
    format      ascii;
    class       polyBoundaryMesh;
    location    "constant/polyMesh";
    object      boundary;
}
// * * * * * * * * * * * * * * * * * * * * * * * * * * * * * * * * * * * * * //

4
(
    inner
    {
        type            wall;
        inGroups        1(wall);
        nFaces          22;
        startFace       580;
    }
    outer
    {
        type            wall;
        inGroups        1(wall);
        nFaces          22;
        startFace       602;
    }
    
    frontPlane
    {
        type            wedge;
        inGroups        1(wedge);
        nFaces          308;
        startFace       624;
    }
    backPlane
    {
        type            wedge;
        inGroups        1(wedge);
        nFaces          308;
        startFace       932;
    }
)

// ************************************************************************* //
